LAMMPS (9 Mar 2013)
  using 1 OpenMP thread(s) per MPI task
#COORDX: fix cv, seed 0
#REPLICA: id 3, ndim 1, temp 275.0, tdim -1
#DIMENSION: 0 run 500 swaps 5
#NEIGHBORS: 0 2 -1

variable        replicaID   string  3
variable        replicaTemp string  275.0

# Solvated 5-mer peptide

units		real
atom_style	full

pair_style	lj/charmm/coul/long 8.0 10.0
bond_style      harmonic
angle_style     charmm
dihedral_style  charmm
improper_style  harmonic
kspace_style	pppm 0.0001

read_data	data.peptide.${replicaID}
read_data	data.peptide.3
  3 = max bonds/atom
  6 = max angles/atom
  14 = max dihedrals/atom
  1 = max impropers/atom
  orthogonal box = (36.8402 41.0137 29.7681) to (64.2116 68.3851 57.1395)
  1 by 1 by 1 MPI processor grid
  2004 atoms
  2004 velocities
  1365 bonds
  786 angles
  207 dihedrals
  12 impropers
  4 = max # of 1-2 neighbors
  7 = max # of 1-3 neighbors
  14 = max # of 1-4 neighbors
  18 = max # of special neighbors

neighbor	2.0 bin
neigh_modify	delay 5

timestep	2.0

group		peptide type <= 12
84 atoms in group peptide

fix		1 all nvt temp ${replicaTemp} ${replicaTemp} 100.0 tchain 1
fix		1 all nvt temp 275.0 ${replicaTemp} 100.0 tchain 1
fix		1 all nvt temp 275.0 275.0 100.0 tchain 1
fix		4 all shake 0.0001 10 100 b 4 6 8 10 12 14 18 a 31
  19 = # of size 2 clusters
  6 = # of size 3 clusters
  3 = # of size 4 clusters
  640 = # of frozen angles

# The colvars fix, read info from file
fix		cv all colvars peptide.colvars.${replicaID} output out.${replicaID}
fix		cv all colvars peptide.colvars.3 output out.${replicaID}
fix		cv all colvars peptide.colvars.3 output out.3

# Dump for viewing
dump		1 peptide custom 2 dump.colvar.lammpstrj.${replicaID} id xu yu zu
dump		1 peptide custom 2 dump.colvar.lammpstrj.3 id xu yu zu
dump_modify     1 sort id

thermo_style	custom step temp etotal pe ke epair ebond f_cv
thermo		10

PPPM initialization ...
  G vector (1/distance) = 0.268725
  grid = 15 15 15
  stencil order = 5
  estimated absolute RMS force accuracy = 0.0228209
  estimated relative force accuracy = 6.87243e-05
  using single precision FFTs
  3d grid and FFT values/proc = 10648 3375
colvars: ----------------------------------------------------------------------
colvars: Initializing the collective variables module, version 2013-01-23.
colvars: # analysis = off [default]
colvars: # colvarsTrajFrequency = 2
colvars: # colvarsRestartFrequency = 1000
colvars: # colvarsTrajAppend = off [default]
colvars: The restart output state file will be "rest.colvars.state".
colvars: The final output state file will be "out.3.colvars.state".
colvars: The trajectory file will be "out.3.colvars.traj".
colvars: ----------------------------------------------------------------------
colvars:   Initializing a new collective variable.
colvars:   # name = one
colvars:   Initializing a new "distance" component.
colvars:     # componentCoeff = 1 [default]
colvars:     # componentExp = 1 [default]
colvars:     # period = 0 [default]
colvars:     # wrapAround = 0 [default]
colvars:     # forceNoPBC = off [default]
colvars:     # oneSiteSystemForce = off [default]
colvars:       Initializing atom group "group1".
colvars:       # atomNumbers = { 16 }
colvars:       # psfSegID =  [default]
colvars:       # atomsFile = "" [default]
colvars:       # dummyAtom = ( 0 , 0 , 0 ) [default]
colvars:       # disableForces = off [default]
colvars:       # centerReference = off [default]
colvars:       # rotateReference = off [default]
colvars:       # fitGradients = off [default]
colvars:       Atom group "group1" defined, 1 initialized: total mass = 12.011.
colvars:       Initializing atom group "group2".
colvars:       # atomNumbers = { 52 }
colvars:       # psfSegID =  [default]
colvars:       # atomsFile = "" [default]
colvars:       # dummyAtom = ( 0 , 0 , 0 ) [default]
colvars:       # disableForces = off [default]
colvars:       # centerReference = off [default]
colvars:       # rotateReference = off [default]
colvars:       # fitGradients = off [default]
colvars:       Atom group "group2" defined, 1 initialized: total mass = 12.011.
colvars:   All components initialized.
colvars:   # width = 1 [default]
colvars:   # lowerBoundary = 0 [default]
colvars:   # lowerWallConstant = 0 [default]
colvars:   # upperBoundary = 0 [default]
colvars:   # upperWallConstant = 0 [default]
colvars:   # expandBoundaries = off [default]
colvars:   # extendedLagrangian = off [default]
colvars:   # outputValue = on [default]
colvars:   # outputVelocity = off [default]
colvars:   # outputSystemForce = off [default]
colvars:   # outputAppliedForce = off [default]
colvars: ----------------------------------------------------------------------
colvars: Collective variables initialized, 1 in total.
colvars: ----------------------------------------------------------------------
colvars:   Initializing a new "harmonic" instance.
colvars:   # name = h_pot
colvars:   # colvars = { one }
colvars:   # forceConstant = 80
colvars:   # centers = { 15.3 }
colvars:   # targetCenters = { 15.3 } [default]
colvars:   # targetForceConstant = 0 [default]
colvars: ----------------------------------------------------------------------
colvars: Collective variables biases initialized, 1 in total.
colvars: ----------------------------------------------------------------------
colvars: Collective variables module initialized.
colvars: ----------------------------------------------------------------------
SHAKE stats (type/ave/delta) on step 0
  4 1.111 1.44264e-05
  6 0.996998 7.26967e-06
  8 1.08 1.32536e-05
  10 1.111 1.22749e-05
  12 1.08 1.11767e-05
  14 0.96 0
  18 0.957206 4.37979e-05
  31 104.519 0.00396029
Memory usage per processor = 23.0261 Mbytes
Step Temp TotEng PotEng KinEng E_pair E_bond cv 
       0    282.10052    -5237.458   -6372.3766    1134.9186    -6442.768    16.557152    64.682177 
      10    285.97524   -5188.5436   -6339.0506     1150.507   -6423.2414    17.304293     14.45221 
      20    285.23952   -5177.5359   -6325.0829    1147.5471   -6433.1411    22.464637  0.019149222 
      30    287.15373   -5185.6638   -6340.9119    1155.2482   -6439.2578    18.482445    1.0837427 
      40    281.03939   -5195.6739   -6326.3234    1130.6496   -6416.9473    10.106542   0.25430156 
      50    287.24131   -5209.0137   -6364.6142    1155.6005   -6452.0921    19.076337   0.19212275 
      60    271.08743   -5223.5829   -6314.1947    1090.6118   -6410.5519    21.602767  0.089419712 
      70    267.88245   -5242.3402   -6320.0581    1077.7179   -6415.9579    23.420781    3.8883777 
      80    274.29685   -5253.2573   -6356.7809    1103.5236   -6447.9684    19.754333     1.196776 
      90      279.192   -5267.5508   -6390.7681    1123.2173   -6480.4092     24.38839   0.76775297 
SHAKE stats (type/ave/delta) on step 100
  4 1.111 2.52013e-06
  6 0.996999 3.07132e-06
  8 1.08 2.94611e-06
  10 1.111 1.8978e-06
  12 1.08019 0.00142898
  14 0.959999 0
  18 0.9572 1.17229e-05
  31 104.52 0.000888208
     100    264.45979   -5283.1708    -6347.119    1063.9482   -6432.3167    13.293037   0.78053734 
SHAKE stats (type/ave/delta) on step 100
  4 1.111 2.30004e-06
  6 0.996999 2.93201e-06
  8 1.08 2.66227e-06
  10 1.111 1.7335e-06
  12 1.08019 0.0014021
  14 0.959999 0
  18 0.9572 1.09214e-05
  31 104.52 0.000833268
WARNING: Inconsistent image flags (domain.cpp:594)
SHAKE stats (type/ave/delta) on step 100
  4 1.111 2.52013e-06
  6 0.996999 3.07132e-06
  8 1.08 2.94611e-06
  10 1.111 1.8978e-06
  12 1.08019 0.00142898
  14 0.959999 0
  18 0.9572 1.17229e-05
  31 104.52 0.000888208
     110    273.04378   -5298.3188   -6396.8012    1098.4824   -6488.7137    21.787887   0.57437604 
     120    274.13288   -5312.6326   -6415.4966     1102.864   -6504.7812    17.234117   0.52800811 
     130    262.75371   -5325.6642   -6382.7487    1057.0845   -6468.5369    18.982464   0.17072059 
     140    268.16626    -5338.482   -6417.3417    1078.8597   -6495.3721    22.024415    2.0627331 
     150    276.64678   -5346.5166   -6459.4942    1112.9776   -6538.2741     21.05253    1.0673734 
     160    271.83954   -5353.3485   -6446.9861    1093.6376   -6531.6205    22.920698   0.18629989 
     170     268.7944   -5359.3502   -6440.7369    1081.3867    -6527.186     20.16349   0.39797058 
     180    269.38486   -5363.8649   -6447.6271    1083.7622   -6526.1837    15.316437   0.99230512 
     190    261.84703    -5365.272   -6418.7088    1053.4368    -6515.993    23.347685   0.57881483 
SHAKE stats (type/ave/delta) on step 200
  4 1.111 4.18834e-07
  6 0.997 3.15235e-07
  8 1.08 7.65704e-07
  10 1.111 1.21394e-06
  12 1.07992 0.00064075
  14 0.96 0
  18 0.957201 3.69054e-06
  31 104.52 0.000408401
     200    269.37018   -5364.7339    -6448.437    1083.7032   -6532.5639    24.063082   0.19430877 
     210    265.25026   -5360.7822   -6427.9105    1067.1283     -6513.57    15.516686   0.28255706 
     220    263.49174   -5352.7643   -6412.8179    1060.0536   -6497.9418    21.471586 0.0051065681 
     230    265.83233   -5343.6549    -6413.125      1069.47   -6500.2003    19.524442     1.239118 
     240    265.74873   -5328.8496   -6397.9833    1069.1337   -6490.9238    24.878489   0.19396157 
     250    268.87434   -5311.5291   -6393.2375    1081.7084   -6475.1311    19.712469   0.15920496 
     260     281.0565   -5293.2534   -6423.9718    1130.7184   -6512.6783    18.347194   0.85848258 
     270    277.40678   -5275.3621   -6391.3974    1116.0352   -6480.8931    21.416931   0.46592653 
     280    283.90653   -5258.2393   -6400.4236    1142.1844    -6484.601    18.015081   0.17109311 
     290    288.47293   -5244.2778   -6404.8332    1160.5554   -6498.4066    15.139577   0.37792518 
SHAKE stats (type/ave/delta) on step 300
  4 1.111 3.13461e-06
  6 0.997001 1.4521e-06
  8 1.08 2.93578e-06
  10 1.111 4.86519e-06
  12 1.08008 0.000505431
  14 0.96 0
  18 0.957202 7.93428e-06
  31 104.52 0.000834744
     300    284.05534   -5232.7714   -6375.5545     1142.783   -6468.0032    15.589585  0.056885972 
WARNING: Inconsistent image flags (domain.cpp:594)
SHAKE stats (type/ave/delta) on step 300
  4 1.111 1.88493e-06
  6 0.997001 1.24893e-06
  8 1.08 2.02762e-06
  10 1.111 3.8747e-06
  12 1.08023 0.00139268
  14 0.96 0
  18 0.957201 4.5969e-06
  31 104.52 0.000709899
     310    286.59214   -5247.2673   -6400.2561    1152.9888   -6476.1435    14.852678   0.83060844 
     320    284.94946   -5242.7504   -6389.1306    1146.3801    -6462.815    13.271168   0.97963512 
     330    274.87931   -5238.3012   -6344.1681    1105.8669   -6429.3393     25.97088   0.23204633 
     340    276.20327   -5234.7725   -6345.9659    1111.1934   -6429.0908    17.122067  0.017688286 
     350    275.50678   -5232.9182   -6341.3095    1108.3913   -6423.7703     20.22807   0.35044267 
     360    280.86307   -5232.0539   -6361.9941    1129.9402   -6446.3482    18.529525   0.54884759 
     370    280.13795   -5231.1454   -6358.1684     1127.023   -6445.3714    16.831459   0.33964283 
     380    280.16648   -5233.5384   -6360.6761    1127.1378   -6443.0166    12.790853    1.1605413 
     390    282.17562   -5235.2491   -6370.4699    1135.2207   -6447.5953     26.70962  0.041901741 
SHAKE stats (type/ave/delta) on step 400
  4 1.111 7.23369e-07
  6 0.997 6.04738e-07
  8 1.08 8.41422e-07
  10 1.111 1.44753e-06
  12 1.07992 0.000607573
  14 0.96 0
  18 0.957201 4.89925e-06
  31 104.52 0.000446627
     400    278.30607   -5239.4075   -6359.0606    1119.6531   -6435.9405    16.788728   0.24938533 
     410    281.11479   -5245.1678   -6376.1207    1130.9529   -6456.7494     22.85126    1.4723607 
     420    279.34479   -5252.1393   -6375.9714     1123.832   -6454.3762     15.14613    1.2934528 
     430    276.38756   -5260.2305   -6372.1653    1111.9348   -6457.0032    20.902347    1.0873154 
     440    275.03056   -5267.9156    -6374.391    1106.4754   -6451.3454    14.398831   0.18698925 
     450    271.85117   -5275.3158   -6369.0002    1093.6844   -6448.9203    15.747604 0.00021764918 
     460    272.58692   -5284.3132   -6380.9577    1096.6444   -6458.9005    18.286789    1.1114642 
     470    274.47106   -5291.5273   -6395.7518    1104.2245   -6475.8753    19.063098   0.80764182 
     480    270.38104   -5296.9503   -6384.7202      1087.77   -6453.7271    18.024075   0.11033608 
     490    271.42617    -5301.478   -6393.4526    1091.9746   -6469.7304    16.093275   0.49811934 
SHAKE stats (type/ave/delta) on step 500
  4 1.111 6.09682e-07
  6 0.997 2.56592e-07
  8 1.08 3.17438e-07
  10 1.111 3.6731e-07
  12 1.07991 0.000614321
  14 0.959999 0
  18 0.957201 5.06789e-06
  31 104.52 0.000440041
     500     268.9658   -5304.4036   -6386.4799    1082.0763   -6454.9017    12.160587    0.1861443 
WARNING: Inconsistent image flags (domain.cpp:594)
SHAKE stats (type/ave/delta) on step 500
  4 1.111 3.41596e-06
  6 0.997001 1.4478e-06
  8 1.08 9.51306e-07
  10 1.111 2.70867e-06
  12 1.07983 0.000982404
  14 0.960003 0
  18 0.957202 6.71286e-06
  31 104.52 0.000608473
colvars: Saving collective variables state to "out.3.colvars.state".
Loop time of 0 on 1 procs (1 MPI x 1 OpenMP) for 500 steps with 2004 atoms

Pair  time (%) = 16.714 (1671.4)
Bond  time (%) = 0.0399782 (3.99782)
Kspce time (%) = 2.63443 (263.443)
Neigh time (%) = 1.9716 (197.16)
Comm  time (%) = 0.106615 (10.6615)
Outpt time (%) = 0.0506486 (5.06486)
Other time (%) = -21.5173 (-2151.73)

FFT time (% of Kspce) = 0.811749 (30.8132)
FFT Gflps 3d (1d only) = 0.337777 0.417108

Nlocal:    2004 ave 2004 max 2004 min
Histogram: 1 0 0 0 0 0 0 0 0 0
Nghost:    11197 ave 11197 max 11197 min
Histogram: 1 0 0 0 0 0 0 0 0 0
Neighs:    707608 ave 707608 max 707608 min
Histogram: 1 0 0 0 0 0 0 0 0 0

Total # of neighbors = 707608
Ave neighs/atom = 353.098
Ave special neighs/atom = 2.34032
Neighbor list builds = 0
Dangerous builds = 0
