LAMMPS (9 Mar 2013)
  using 1 OpenMP thread(s) per MPI task
#COORDX: fix cv, seed 0
#REPLICA: id 1, ndim 1, temp 275.0, tdim -1
#DIMENSION: 0 run 500 swaps 5
#NEIGHBORS: 0 0 2

variable        replicaID   string  1
variable        replicaTemp string  275.0

# Solvated 5-mer peptide

units		real
atom_style	full

pair_style	lj/charmm/coul/long 8.0 10.0
bond_style      harmonic
angle_style     charmm
dihedral_style  charmm
improper_style  harmonic
kspace_style	pppm 0.0001

read_data	data.peptide.${replicaID}
read_data	data.peptide.1
  3 = max bonds/atom
  6 = max angles/atom
  14 = max dihedrals/atom
  1 = max impropers/atom
  orthogonal box = (36.8402 41.0137 29.7681) to (64.2116 68.3851 57.1395)
  1 by 1 by 1 MPI processor grid
  2004 atoms
  2004 velocities
  1365 bonds
  786 angles
  207 dihedrals
  12 impropers
  4 = max # of 1-2 neighbors
  7 = max # of 1-3 neighbors
  14 = max # of 1-4 neighbors
  18 = max # of special neighbors

neighbor	2.0 bin
neigh_modify	delay 5

timestep	2.0

group		peptide type <= 12
84 atoms in group peptide

fix		1 all nvt temp ${replicaTemp} ${replicaTemp} 100.0 tchain 1
fix		1 all nvt temp 275.0 ${replicaTemp} 100.0 tchain 1
fix		1 all nvt temp 275.0 275.0 100.0 tchain 1
fix		4 all shake 0.0001 10 100 b 4 6 8 10 12 14 18 a 31
  19 = # of size 2 clusters
  6 = # of size 3 clusters
  3 = # of size 4 clusters
  640 = # of frozen angles

# The colvars fix, read info from file
fix		cv all colvars peptide.colvars.${replicaID} output out.${replicaID}
fix		cv all colvars peptide.colvars.1 output out.${replicaID}
fix		cv all colvars peptide.colvars.1 output out.1

# Dump for viewing
dump		1 peptide custom 2 dump.colvar.lammpstrj.${replicaID} id xu yu zu
dump		1 peptide custom 2 dump.colvar.lammpstrj.1 id xu yu zu
dump_modify     1 sort id

thermo_style	custom step temp etotal pe ke epair ebond f_cv
thermo		10

PPPM initialization ...
  G vector (1/distance) = 0.268725
  grid = 15 15 15
  stencil order = 5
  estimated absolute RMS force accuracy = 0.0228209
  estimated relative force accuracy = 6.87243e-05
  using single precision FFTs
  3d grid and FFT values/proc = 10648 3375
colvars: ----------------------------------------------------------------------
colvars: Initializing the collective variables module, version 2013-01-23.
colvars: # analysis = off [default]
colvars: # colvarsTrajFrequency = 2
colvars: # colvarsRestartFrequency = 1000
colvars: # colvarsTrajAppend = off [default]
colvars: The restart output state file will be "rest.colvars.state".
colvars: The final output state file will be "out.1.colvars.state".
colvars: The trajectory file will be "out.1.colvars.traj".
colvars: ----------------------------------------------------------------------
colvars:   Initializing a new collective variable.
colvars:   # name = one
colvars:   Initializing a new "distance" component.
colvars:     # componentCoeff = 1 [default]
colvars:     # componentExp = 1 [default]
colvars:     # period = 0 [default]
colvars:     # wrapAround = 0 [default]
colvars:     # forceNoPBC = off [default]
colvars:     # oneSiteSystemForce = off [default]
colvars:       Initializing atom group "group1".
colvars:       # atomNumbers = { 16 }
colvars:       # psfSegID =  [default]
colvars:       # atomsFile = "" [default]
colvars:       # dummyAtom = ( 0 , 0 , 0 ) [default]
colvars:       # disableForces = off [default]
colvars:       # centerReference = off [default]
colvars:       # rotateReference = off [default]
colvars:       # fitGradients = off [default]
colvars:       Atom group "group1" defined, 1 initialized: total mass = 12.011.
colvars:       Initializing atom group "group2".
colvars:       # atomNumbers = { 52 }
colvars:       # psfSegID =  [default]
colvars:       # atomsFile = "" [default]
colvars:       # dummyAtom = ( 0 , 0 , 0 ) [default]
colvars:       # disableForces = off [default]
colvars:       # centerReference = off [default]
colvars:       # rotateReference = off [default]
colvars:       # fitGradients = off [default]
colvars:       Atom group "group2" defined, 1 initialized: total mass = 12.011.
colvars:   All components initialized.
colvars:   # width = 1 [default]
colvars:   # lowerBoundary = 0 [default]
colvars:   # lowerWallConstant = 0 [default]
colvars:   # upperBoundary = 0 [default]
colvars:   # upperWallConstant = 0 [default]
colvars:   # expandBoundaries = off [default]
colvars:   # extendedLagrangian = off [default]
colvars:   # outputValue = on [default]
colvars:   # outputVelocity = off [default]
colvars:   # outputSystemForce = off [default]
colvars:   # outputAppliedForce = off [default]
colvars: ----------------------------------------------------------------------
colvars: Collective variables initialized, 1 in total.
colvars: ----------------------------------------------------------------------
colvars:   Initializing a new "harmonic" instance.
colvars:   # name = h_pot
colvars:   # colvars = { one }
colvars:   # forceConstant = 80
colvars:   # centers = { 15.1 }
colvars:   # targetCenters = { 15.1 } [default]
colvars:   # targetForceConstant = 0 [default]
colvars: ----------------------------------------------------------------------
colvars: Collective variables biases initialized, 1 in total.
colvars: ----------------------------------------------------------------------
colvars: Collective variables module initialized.
colvars: ----------------------------------------------------------------------
SHAKE stats (type/ave/delta) on step 0
  4 1.111 1.44264e-05
  6 0.996998 7.26967e-06
  8 1.08 1.32536e-05
  10 1.111 1.22749e-05
  12 1.08 1.11767e-05
  14 0.96 0
  18 0.957206 4.37979e-05
  31 104.519 0.00396029
Memory usage per processor = 23.0261 Mbytes
Step Temp TotEng PotEng KinEng E_pair E_bond cv 
       0    282.10052    -5237.458   -6372.3766    1134.9186    -6442.768    16.557152    45.936024 
      10    283.67829   -5203.3896   -6344.6557    1141.2661   -6423.2883    15.947994    10.729941 
      20    282.82321   -5195.2422   -6333.0683    1137.8261   -6435.0385    21.683236 0.0012069083 
      30    285.10497   -5201.7128   -6348.7186    1147.0058   -6442.0699    17.966006   0.99146304 
      40    278.67512   -5209.6488   -6330.7867    1121.1379    -6416.437    10.011162   0.31233386 
      50    285.49007   -5219.9226   -6368.4776    1148.5551   -6450.3338    17.520157   0.14747478 
      60    270.06849   -5230.9583   -6317.4708    1086.5125   -6408.9405     20.33133   0.06246081 
      70    267.66401   -5245.2946   -6322.1337    1076.8391   -6413.5102    21.617595     3.334648 
      80    274.24731   -5252.5912   -6355.9155    1103.3244   -6442.4242     19.06996   0.79650329 
      90    281.06163   -5263.3833   -6394.1224     1130.739   -6479.0555     22.74423   0.75950921 
SHAKE stats (type/ave/delta) on step 100
  4 1.111 2.07876e-06
  6 0.996999 2.72508e-06
  8 1.08 2.36461e-06
  10 1.111 1.58058e-06
  12 1.08017 0.00132153
  14 0.959999 0
  18 0.9572 1.01307e-05
  31 104.52 0.000778922
     100    266.48584   -5275.5827   -6347.6819    1072.0992   -6428.9849    12.894776   0.65120734 
WARNING: Inconsistent image flags (domain.cpp:594)
SHAKE stats (type/ave/delta) on step 100
  4 1.111 1.85158e-06
  6 0.996999 2.48261e-06
  8 1.08 2.05891e-06
  10 1.111 1.4189e-06
  12 1.08015 0.00119032
  14 0.96 0
  18 0.9572 9.32152e-06
  31 104.52 0.000723293
WARNING: Inconsistent image flags (domain.cpp:594)
SHAKE stats (type/ave/delta) on step 100
  4 1.111 2.07876e-06
  6 0.996999 2.72508e-06
  8 1.08 2.36461e-06
  10 1.111 1.58058e-06
  12 1.08017 0.00132153
  14 0.959999 0
  18 0.9572 1.01307e-05
  31 104.52 0.000778922
     110    274.86738   -5287.7717   -6393.5906    1105.8189   -6480.5132    20.821526   0.40713252 
     120     277.5557   -5299.6394   -6416.2737    1116.6343   -6501.1891    16.999676   0.21749574 
     130    267.00101   -5311.5003   -6385.6721    1074.1718   -6467.7026    18.093518  0.093190477 
     140    268.68971    -5323.741   -6404.7066    1080.9656   -6480.2969    21.781943    1.9027886 
     150      276.351   -5331.7116   -6443.4993    1111.7877   -6518.8914    20.563869   0.69091718 
     160    273.74834   -5339.1999   -6440.5168     1101.317   -6521.9538    21.257907  0.070888046 
     170    268.46047   -5345.3592   -6425.4026    1080.0433   -6508.6396    19.292091   0.39517128 
     180    270.88591   -5350.7297   -6440.5308    1089.8011   -6516.4396    15.271005    1.0167111 
     190    266.61072    -5352.898   -6425.4996    1072.6016   -6519.7569    21.697293   0.49178812 
SHAKE stats (type/ave/delta) on step 200
  4 1.111 2.30358e-07
  6 0.997 1.10417e-07
  8 1.08 3.39737e-07
  10 1.111 1.21618e-06
  12 1.07992 0.000613349
  14 0.96 0
  18 0.957201 3.22347e-06
  31 104.52 0.000374367
     200    270.97449   -5354.8234   -6444.9809    1090.1575   -6525.9736     22.85763   0.17913071 
WARNING: Inconsistent image flags (domain.cpp:594)
SHAKE stats (type/ave/delta) on step 200
  4 1.111 1.51686e-07
  6 0.997 8.51642e-08
  8 1.08 4.64666e-07
  10 1.111 1.14437e-06
  12 1.07992 0.000623353
  14 0.96 0
  18 0.957201 3.12057e-06
  31 104.52 0.000390463
WARNING: Inconsistent image flags (domain.cpp:594)
SHAKE stats (type/ave/delta) on step 200
  4 1.111 2.30358e-07
  6 0.997 1.10417e-07
  8 1.08 3.39737e-07
  10 1.111 1.21618e-06
  12 1.07992 0.000613349
  14 0.96 0
  18 0.957201 3.22347e-06
  31 104.52 0.000374367
     210    265.05203   -5353.6013   -6419.9322    1066.3308   -6502.6896    15.163178   0.22602614 
     220    266.66345   -5348.3465   -6421.1602    1072.8137    -6502.671    18.902045 0.0054891202 
     230    264.51278   -5342.2432   -6406.4046    1064.1613    -6487.899    17.804877     1.000397 
     240    264.17689    -5331.186   -6393.9961    1062.8101   -6485.1768     23.08387   0.16464712 
     250    271.17961    -5317.949   -6408.9317    1090.9827   -6491.1391    18.338813   0.15383732 
     260    277.53647    -5304.712   -6421.2689     1116.557   -6507.8996    16.824399   0.65410397 
     270    281.69272   -5291.2513   -6424.5292     1133.278    -6508.574    20.025446   0.19821511 
     280    279.72237   -5278.6228   -6403.9739     1125.351   -6485.5011    16.455742 0.0017977897 
     290    287.51628   -5269.8087   -6426.5155    1156.7067   -6519.2113    13.727636      1.70211 
SHAKE stats (type/ave/delta) on step 300
  4 1.111 1.36694e-06
  6 0.997001 1.13646e-06
  8 1.08 2.50778e-06
  10 1.111 3.69172e-06
  12 1.08023 0.00144395
  14 0.96 0
  18 0.957201 4.67104e-06
  31 104.52 0.000554231
     300    283.37509   -5261.5171   -6401.5635    1140.0463   -6493.7914    16.614423   0.98890674 
WARNING: Inconsistent image flags (domain.cpp:594)
SHAKE stats (type/ave/delta) on step 300
  4 1.111 1.91683e-06
  6 0.997001 1.0279e-06
  8 1.08 1.85326e-06
  10 1.111 5.12096e-06
  12 1.0802 0.00121929
  14 0.96 0
  18 0.957201 4.70832e-06
  31 104.52 0.000489434
WARNING: Inconsistent image flags (domain.cpp:594)
SHAKE stats (type/ave/delta) on step 300
  4 1.111 1.36694e-06
  6 0.997001 1.13646e-06
  8 1.08 2.50778e-06
  10 1.111 3.69172e-06
  12 1.08023 0.00144395
  14 0.96 0
  18 0.957201 4.67104e-06
  31 104.52 0.000554231
     310    285.39003   -5257.0276   -6405.1803    1148.1526   -6483.7023    14.741783   0.35645352 
     320    282.48709   -5256.6023   -6393.0761    1136.4738   -6466.8952    12.112078   0.67155631 
     330    278.63691   -5257.4135   -6378.3976    1120.9842   -6462.8032    25.919558  0.097667216 
     340    278.67196   -5260.6133   -6381.7385    1121.1252   -6467.2361    16.513799  0.068574149 
     350     279.4998   -5265.4661   -6389.9217    1124.4556   -6468.9115    18.747166   0.40700118 
     360    281.04627   -5271.1555   -6401.8328    1130.6772   -6487.1954    18.644506   0.52235661 
     370    275.20705   -5278.4407   -6385.6262    1107.1855    -6471.687    15.078944   0.45812423 
     380     271.8545   -5286.8685   -6380.5664    1093.6978   -6460.3709    11.965662   0.48260229 
     390    269.64447   -5294.3275   -6379.1341    1084.8066   -6457.5074     26.51879  0.059917924 
SHAKE stats (type/ave/delta) on step 400
  4 1.111 1.2541e-06
  6 0.997 5.17473e-07
  8 1.08 5.86807e-07
  10 1.111 1.48206e-06
  12 1.07999 0.000107832
  14 0.96 0
  18 0.957201 5.81248e-06
  31 104.52 0.000598207
     400    268.78961   -5300.5261   -6381.8936    1081.3675   -6462.1014    16.940595  0.015409178 
WARNING: Inconsistent image flags (domain.cpp:594)
SHAKE stats (type/ave/delta) on step 400
  4 1.111 1.99893e-06
  6 0.996999 9.73764e-07
  8 1.08 2.08209e-06
  10 1.111 2.73581e-06
  12 1.0799 0.000846593
  14 0.959998 0
  18 0.9572 8.546e-06
  31 104.52 0.00070084
     410    269.80747   -5273.8969   -6359.3593    1085.4624   -6444.4262    27.257325    1.6987436 
     420    274.04142   -5277.5893   -6380.0853     1102.496   -6457.9625    16.020313   0.55029202 
     430    279.45089   -5282.6767   -6406.9356    1124.2589    -6485.895    19.494933    0.3244649 
     440    267.41551    -5288.883   -6364.7223    1075.8393   -6438.5984    12.940618   0.40033214 
     450    281.59369   -5294.9206   -6427.8002    1132.8796    -6505.718    15.371753   0.45950099 
     460    272.52619   -5301.7696   -6398.1697    1096.4001   -6482.1396    19.669109   0.91318619 
     470    269.55575   -5306.5375   -6390.9872    1084.4497   -6473.9462    23.691418  0.035101567 
     480    278.88437   -5315.0328   -6437.0125    1121.9797   -6515.0393    18.369225    1.8586438 
     490    277.74989   -5319.5755   -6436.9911    1117.4156   -6525.5451    19.959259  0.049933124 
SHAKE stats (type/ave/delta) on step 500
  4 1.111 6.11649e-07
  6 0.997 5.24052e-07
  8 1.08 8.73336e-07
  10 1.111 1.52999e-06
  12 1.07994 0.000356607
  14 0.959999 0
  18 0.9572 7.92422e-06
  31 104.52 0.000740152
     500    274.45422   -5326.2492    -6430.406    1104.1568   -6510.3093    13.680934  0.042400236 
WARNING: Inconsistent image flags (domain.cpp:594)
SHAKE stats (type/ave/delta) on step 500
  4 1.111 3.86917e-06
  6 0.997001 3.22395e-06
  8 1.08 2.41816e-06
  10 1.111 3.93837e-06
  12 1.07991 0.000839967
  14 0.960001 0
  18 0.957202 1.05184e-05
  31 104.52 0.000779519
colvars: Saving collective variables state to "out.1.colvars.state".
Loop time of 0 on 1 procs (1 MPI x 1 OpenMP) for 500 steps with 2004 atoms

Pair  time (%) = 16.9257 (1692.57)
Bond  time (%) = 0.0397676 (3.97676)
Kspce time (%) = 2.63426 (263.426)
Neigh time (%) = 1.9266 (192.66)
Comm  time (%) = 0.106548 (10.6548)
Outpt time (%) = 0.0514215 (5.14215)
Other time (%) = -21.6843 (-2168.43)

FFT time (% of Kspce) = 0.813959 (30.899)
FFT Gflps 3d (1d only) = 0.33686 0.412097

Nlocal:    2004 ave 2004 max 2004 min
Histogram: 1 0 0 0 0 0 0 0 0 0
Nghost:    11285 ave 11285 max 11285 min
Histogram: 1 0 0 0 0 0 0 0 0 0
Neighs:    708024 ave 708024 max 708024 min
Histogram: 1 0 0 0 0 0 0 0 0 0

Total # of neighbors = 708024
Ave neighs/atom = 353.305
Ave special neighs/atom = 2.34032
Neighbor list builds = 0
Dangerous builds = 0
